{"image_dir": "data/RVL_CDIP/images/imageso/o/m/d/omd71a00/2057418083_2057418085.tif", "label": "7", "words": ["oooooSSEs", "sowman", "oisraimurion", "IIHINAEHL", "MATERIAL", "SAFETY", "DATA", "SHEET", "SECTION", "|", "FRODUCT", "NANE", "T", "BOwMAN", "PART", "NG,", "SILASTIC*", "732", "RTV", "ADHESIVE/SEALANT", "(WHITE", "3", "0Z,)", "|", "214322", "(page", "10f3)", "SURPLIER", "[", "EVERGENGY", "TELEPHONE", "WO,", "Bowman", "Distribution,", "Barnes", "Group", "Inc.", "|", "(216)", "3917200", "ABORESS", "oATE", "850", "East", "72nd", "Street,", "Cleveland,", "OH", "44103", "6/9/86", "FAZARDOUS", "VATERIAL", "DESCRIFTION,", "FROPER", "SHIPPING", "NAME", "HAZARD", "CLASS.", "RAZARG", "10", "0.", "145", "GFR", "172107", "NA.", "\u2018ADDITIONAL", "RAZARD", "CLASSES", "(a8", "sppicamie)", "NA.", "CHEMICAL", "FANILY", "FORMULA", "Silicone", "SECTION", "Il", "-", "HAZARDOUS", "INGREDIENTS", "Teiedse", "3", "Carcinogan", "cAsREGISTRYNO.", "|", "sw", "\u201cw", "CHEMICAL", "NAVES)", "B", "TARC", "or", "OSHA", "191002", "(specily)", "5", "10PPM", "|", "Acstoxysilane", "T", "SECTION", "Il", "-", "PHYSICAL", "DATA", "RGO", "e", "SPEGIFIC", "GRAVITY", "(.0", "1)", "o", "VAPOR", "FRESSURE", "_", "5", "PERCENT", "VOLATILE", "BV", "VOLUVE", "(%", "PERCENT", "SOLID", "&V", "@\u2014F\u2014\"C", "BmmHg[", "s", "s", "WEIGHT", "(%)", "L)", "VAPOR", "BENGTTY", "(ATR", "1)", "EVAPORATION", "RATE", "[", "0", "T", "ether", "-1", "|", "cureo", "1005", "T", "e", "g", "SOLUBILITY", "WWATER", "T", "FPPEARANCE", "AND", "GOOR", "WATERIAL", "S", "PASTE", "Acetic", "acid", "ke", "odor:", "white", "SECTION", "IV", "-", "FIRE", "AND", "EXPLOSION", "HAZARD", "DATA", "FLASHPOINT", "\u201cmthod", "vsed", "FLAMMABLE", "LTS", "e", "TEL", "2807", "120", "*_Open", "Cup.", "ol", "Dfiermined", "EXTINGUISFING", "VEDIA", "Water,", "water", "fog,", "CO,,", "dry", "chemical,", "foam,", "other.", "\"SPECIAL", "FIFE", "FIGHTING", "PROCEDURES", "|___Selt", "contained", "breathing", "apparatus", "and", "protective", "clothing", "should", "be", "worn", "n", "fghting", "fre", "involving", "chemicas.", "UNUSUAL", "FIRE", "AN", "EXPLOSION", "HAZARDS", "Not", "known", "1o", "Dow", "Corning.", "\u20ac808T\u00a5L508", "U", "21432-2", "gage", "1019"], "bbox": [[737, 16, 858, 25], [345, 57, 468, 73], [479, 58, 670, 74], [700, 30, 914, 68], [297, 77, 433, 93], [441, 78, 543, 93], [553, 79, 624, 94], [633, 79, 719, 95], [449, 112, 553, 126], [563, 113, 566, 126], [87, 131, 151, 139], [157, 131, 193, 139], [682, 133, 684, 149], [693, 135, 754, 143], [759, 136, 793, 144], [798, 136, 817, 144], [122, 143, 207, 154], [212, 144, 237, 154], [244, 144, 275, 154], [280, 145, 449, 155], [454, 146, 513, 158], [519, 146, 526, 156], [533, 146, 566, 159], [682, 150, 684, 152], [693, 148, 752, 158], [832, 149, 873, 161], [881, 149, 926, 162], [87, 151, 150, 179], [682, 166, 684, 170], [693, 166, 777, 174], [782, 167, 861, 175], [866, 168, 884, 175], [122, 174, 186, 184], [192, 174, 284, 186], [291, 175, 342, 185], [349, 176, 396, 188], [403, 176, 429, 186], [682, 180, 684, 196], [694, 178, 730, 190], [737, 179, 803, 188], [86, 195, 148, 203], [693, 200, 727, 208], [121, 208, 146, 217], [152, 208, 183, 218], [188, 208, 225, 218], [231, 208, 279, 220], [285, 209, 364, 221], [370, 210, 394, 219], [411, 210, 455, 220], [693, 212, 739, 222], [86, 230, 168, 238], [173, 230, 237, 238], [242, 230, 331, 239], [340, 231, 392, 240], [397, 232, 460, 240], [465, 233, 503, 241], [510, 233, 564, 241], [569, 233, 612, 242], [620, 234, 674, 242], [679, 234, 692, 242], [697, 234, 714, 242], [723, 235, 740, 243], [745, 235, 770, 242], [775, 235, 822, 244], [121, 242, 152, 252], [86, 260, 167, 268], [172, 261, 226, 269], [232, 261, 291, 269], [297, 262, 314, 270], [319, 263, 384, 271], [121, 273, 152, 282], [86, 292, 155, 300], [160, 293, 205, 301], [536, 295, 602, 304], [121, 305, 180, 315], [274, 335, 377, 349], [386, 336, 397, 349], [406, 343, 414, 346], [423, 336, 570, 351], [580, 337, 738, 352], [795, 361, 909, 369], [854, 350, 858, 378], [866, 361, 932, 369], [93, 365, 214, 374], [229, 355, 244, 383], [259, 367, 281, 374], [339, 367, 356, 374], [514, 368, 583, 376], [589, 369, 644, 378], [828, 371, 834, 378], [844, 371, 874, 379], [879, 371, 904, 379], [916, 372, 933, 379], [814, 381, 856, 390], [862, 382, 913, 391], [245, 397, 251, 405], [322, 398, 367, 405], [375, 387, 391, 415], [400, 398, 484, 408], [306, 575, 309, 586], [332, 617, 436, 631], [446, 618, 465, 631], [474, 625, 481, 628], [490, 618, 605, 632], [614, 619, 677, 633], [83, 637, 183, 645], [280, 646, 317, 657], [372, 639, 433, 647], [443, 639, 494, 647], [501, 640, 528, 649], [545, 641, 554, 649], [633, 649, 655, 657], [83, 661, 126, 669], [131, 661, 200, 669], [215, 650, 225, 678], [246, 662, 252, 670], [372, 664, 434, 672], [439, 664, 504, 672], [509, 665, 525, 672], [530, 665, 585, 673], [591, 665, 605, 673], [703, 666, 764, 674], [769, 666, 808, 674], [814, 667, 829, 674], [83, 671, 204, 681], [211, 671, 311, 682], [297, 661, 315, 689], [632, 674, 644, 681], [702, 677, 754, 685], [760, 677, 778, 685], [902, 676, 918, 683], [83, 685, 126, 693], [131, 686, 187, 694], [197, 686, 217, 694], [235, 687, 244, 695], [372, 689, 466, 697], [473, 689, 506, 697], [513, 690, 515, 698], [580, 691, 589, 697], [688, 688, 690, 699], [534, 700, 565, 707], [632, 699, 643, 706], [688, 700, 689, 703], [702, 699, 748, 707], [902, 701, 932, 709], [120, 713, 152, 720], [204, 713, 211, 720], [394, 717, 397, 718], [83, 712, 143, 720], [153, 713, 229, 721], [297, 715, 387, 730], [83, 739, 162, 747], [176, 740, 204, 747], [209, 740, 247, 748], [702, 745, 768, 753], [774, 745, 784, 753], [802, 745, 844, 753], [107, 752, 145, 759], [150, 752, 173, 760], [178, 752, 198, 760], [202, 753, 234, 761], [239, 753, 270, 761], [212, 773, 315, 788], [325, 774, 345, 788], [352, 782, 360, 784], [369, 775, 419, 788], [426, 775, 476, 789], [485, 776, 618, 790], [628, 777, 723, 791], [732, 778, 794, 791], [83, 795, 168, 803], [304, 797, 347, 804], [352, 797, 380, 804], [476, 798, 558, 806], [563, 798, 607, 806], [703, 799, 724, 807], [819, 800, 843, 808], [170, 806, 219, 816], [229, 798, 256, 826], [264, 798, 325, 826], [331, 798, 361, 826], [747, 812, 767, 820], [772, 812, 841, 820], [83, 822, 187, 831], [193, 823, 235, 831], [107, 836, 145, 844], [150, 837, 182, 844], [186, 836, 209, 846], [214, 836, 241, 846], [246, 837, 265, 846], [270, 837, 322, 845], [331, 837, 365, 845], [369, 838, 401, 845], [82, 849, 137, 857], [142, 850, 170, 857], [176, 850, 240, 858], [245, 850, 336, 859], [76, 862, 130, 875], [133, 863, 192, 871], [197, 863, 254, 873], [259, 864, 319, 873], [324, 864, 345, 872], [350, 865, 409, 874], [414, 865, 463, 875], [468, 865, 508, 873], [513, 866, 526, 873], [531, 868, 561, 874], [566, 868, 575, 874], [581, 866, 627, 876], [632, 867, 650, 874], [655, 867, 708, 877], [713, 867, 777, 875], [82, 903, 145, 911], [151, 903, 178, 911], [183, 903, 211, 911], [216, 903, 291, 912], [297, 904, 360, 912], [107, 916, 127, 924], [132, 916, 219, 924], [175, 906, 187, 934], [195, 906, 216, 934], [224, 917, 275, 927], [922, 825, 946, 963], [938, 798, 939, 809], [87, 963, 204, 983], [215, 974, 256, 986], [262, 974, 309, 986]]}