{"image_dir": "data/RVL_CDIP/images/imagesw/w/z/b/wzb81a00/2057486794_2057486795.tif", "label": "7", "words": ["/v.\"mphmm", "#", "27101,", "soo002", "7", "\u2018", "mmminz\u2018;7\u2018gsg", "mateniaw", "sarery", "oara", "sui", "([", "LIHIINND", "ol", "MEDS", "4", "@7oss", "PRODUCT", "NAME:", " Dysprosuim", "chloride", "Cas#", "15059-32-6", "CHEMICAL", "NATURE:", "Inorganic", "salc", "APPEARANCE", "AND", "ODOR", "HAZARDOUS.", "INGREDIENTS", "MATERIAL", "TLV", "(Units)", "%", "ACTIVITY:", "BOILING", "POINT,", "760", "mm.", "Hg", "1500\u00b0C", "(Anhydrous)", "FREEZE", "POINT", "14805arous)", "SPECIFIC", "GRAVITY", "3.67", "@", "0\u00b0/4\u00b0", "(anhydrous)", "|", "VAPORPRESSUREATZ0\u00b0C.", "|", "No", "data", "VAPOR", "DENSITY", "Atr", "=", "1", "|", ">1", "SOLUBILITY", "IN", "H,0", "Soluble", "R", "e", "yOLATILES", "|", "A", "1ONIC", "NATURE", "Yes", "l", "Shiny", "yellow", "cyrstals", "Dysprosium", "chloride", "99.9", "|", "None", "established", "(TXDS:", "orl-mouse", "LDgy:", "5443", "mg/ks", "Registry", "of", "Toxic", "Effects", "of", "Chemical", "Substances", "1977", "4240", "7000)", ".", "FIRE", "AND.", "EXPLOSION:", "HAZARD:", "DATA.", "FLASH", "POINT", "(est", "method)", "\u2018", "AUTOIGNITION", "\u2019", "urpER", "A", "TEMPERATURE", "If", "material", "is", "involved", "in", "a", "fire", "use", "water", "fog", "or", "spray,", "dry", "EXTINGUISHING", "chemical", "extinguishin", "ts,", "dry", "sand", "and", "carbon", "dioxide.", "X", "cal", "exting:", "g", "agents,", "dry", "sand", "and", "ca", "Wear", "NIOSH/MSHA", "approved", "self-contained", "breathing", "apparatus", "and", "SPECIAL", "FIRE", "FIGHTING", "chemical", "resistant", "protective", "clothing,", "hat,", "gloves", "and", "boots.", "PROCEDURES", "with", "acids", "UNUSUAL", "FIRE", "AND", "Dangerous", "when", "heated", "to", "decomposition", "or", "on", "co", "EXPLOSION", "HAZARDS", "or", "acid", "fumes.", "Evolves", "highly", "toxi\u00e9", "chloride", "fumes.", "8-80", "W/Vanm", "Division", "1o", "At", "Producs,", "162", "Ancover", "Srset,", "Danvers,", "Massachusetss", "orezs", "2057486794", "(617)", "7771970,", "(415)", "836-1777", "Telex:", "94-0378", "ALFA", "DARS"], "bbox": [[116, 42, 366, 83], [464, 41, 472, 51], [482, 41, 537, 55], [548, 42, 626, 53], [635, 41, 646, 53], [702, 63, 704, 67], [737, 48, 859, 71], [314, 73, 445, 91], [455, 73, 549, 91], [567, 72, 627, 90], [637, 73, 677, 90], [691, 63, 738, 100], [768, 63, 914, 99], [440, 105, 475, 116], [633, 106, 723, 115], [750, 108, 769, 116], [797, 108, 906, 124], [76, 136, 145, 145], [153, 136, 201, 145], [241, 136, 338, 148], [349, 136, 425, 145], [544, 142, 581, 152], [592, 143, 686, 153], [75, 168, 151, 178], [158, 168, 218, 177], [241, 166, 329, 178], [340, 165, 376, 175], [75, 403, 171, 412], [177, 403, 208, 412], [213, 403, 256, 412], [385, 432, 531, 447], [544, 431, 691, 447], [345, 468, 422, 477], [839, 469, 866, 478], [874, 469, 916, 478], [76, 203, 87, 211], [97, 203, 172, 212], [76, 270, 135, 279], [142, 270, 189, 280], [195, 271, 217, 279], [224, 273, 245, 279], [256, 271, 272, 281], [350, 267, 405, 277], [418, 265, 516, 278], [578, 270, 635, 279], [642, 270, 686, 279], [828, 262, 928, 284], [75, 303, 139, 312], [147, 303, 212, 312], [330, 303, 367, 313], [379, 303, 386, 314], [398, 299, 443, 314], [455, 302, 554, 315], [562, 293, 572, 323], [578, 302, 770, 311], [795, 293, 811, 323], [816, 304, 834, 313], [846, 304, 882, 313], [75, 340, 125, 349], [131, 340, 194, 349], [213, 339, 240, 348], [252, 341, 259, 345], [272, 338, 279, 348], [320, 327, 322, 357], [339, 337, 366, 348], [577, 338, 665, 348], [674, 339, 687, 347], [693, 340, 722, 352], [816, 337, 882, 346], [75, 364, 99, 385], [111, 364, 134, 385], [153, 364, 234, 385], [320, 360, 322, 390], [368, 371, 387, 380], [576, 370, 614, 379], [627, 371, 687, 380], [815, 370, 842, 379], [320, 392, 322, 420], [349, 401, 395, 413], [405, 401, 462, 413], [473, 401, 546, 413], [194, 506, 289, 517], [302, 505, 377, 515], [731, 504, 766, 514], [788, 495, 806, 523], [815, 505, 852, 514], [862, 504, 967, 514], [197, 535, 248, 546], [262, 535, 348, 544], [368, 535, 412, 551], [426, 533, 460, 543], [471, 532, 518, 545], [194, 572, 268, 583], [281, 571, 299, 580], [309, 572, 357, 581], [368, 571, 432, 581], [445, 571, 462, 580], [472, 571, 546, 580], [558, 570, 651, 580], [197, 600, 230, 610], [243, 600, 280, 610], [291, 601, 335, 612], [297, 646, 300, 648], [321, 632, 367, 648], [373, 633, 426, 648], [441, 632, 571, 648], [581, 632, 679, 647], [690, 632, 759, 648], [74, 671, 120, 679], [126, 671, 169, 680], [176, 672, 202, 680], [208, 672, 261, 680], [558, 662, 562, 690], [597, 664, 705, 673], [743, 661, 746, 690], [769, 694, 814, 723], [871, 704, 891, 713], [597, 677, 705, 686], [340, 734, 355, 744], [367, 735, 443, 744], [454, 737, 469, 743], [482, 734, 556, 743], [568, 734, 585, 743], [597, 736, 604, 743], [615, 734, 651, 743], [663, 736, 690, 743], [700, 735, 746, 743], [759, 733, 783, 745], [796, 736, 811, 743], [824, 736, 877, 745], [891, 736, 918, 745], [72, 747, 188, 756], [340, 749, 405, 758], [425, 749, 537, 758], [597, 750, 622, 760], [635, 749, 660, 758], [682, 749, 708, 758], [720, 749, 746, 758], [758, 751, 813, 758], [824, 748, 896, 757], [71, 759, 119, 768], [389, 750, 414, 759], [435, 751, 480, 761], [539, 752, 546, 761], [559, 751, 613, 761], [645, 751, 659, 760], [673, 751, 679, 758], [728, 751, 736, 758], [768, 751, 775, 758], [338, 800, 377, 809], [387, 799, 481, 810], [491, 800, 567, 811], [577, 799, 708, 809], [719, 799, 802, 811], [814, 801, 897, 808], [910, 799, 937, 808], [71, 814, 130, 823], [138, 815, 169, 823], [176, 815, 247, 824], [340, 815, 414, 824], [426, 815, 508, 824], [519, 816, 613, 826], [626, 814, 706, 826], [719, 814, 752, 825], [766, 814, 820, 826], [833, 814, 860, 823], [870, 814, 925, 823], [71, 826, 169, 835], [841, 873, 878, 882], [891, 873, 937, 882], [71, 881, 140, 890], [147, 881, 179, 890], [185, 881, 216, 890], [340, 874, 423, 886], [434, 876, 471, 883], [482, 873, 537, 883], [550, 875, 565, 883], [577, 873, 699, 885], [710, 876, 727, 882], [738, 876, 755, 882], [766, 875, 783, 882], [71, 892, 152, 902], [158, 893, 229, 902], [340, 891, 358, 898], [368, 889, 405, 898], [417, 889, 468, 898], [491, 888, 555, 898], [568, 888, 622, 900], [635, 888, 682, 897], [692, 888, 764, 897], [786, 890, 828, 897], [76, 942, 112, 951], [225, 926, 440, 955], [445, 930, 517, 960], [896, 946, 912, 953], [225, 956, 256, 967], [261, 955, 338, 969], [344, 956, 372, 968], [377, 956, 445, 968], [450, 956, 501, 969], [508, 956, 580, 970], [586, 957, 706, 969], [711, 958, 759, 969], [774, 944, 948, 965], [224, 972, 263, 985], [270, 972, 349, 984], [355, 972, 394, 985], [400, 973, 475, 983], [480, 972, 526, 983], [531, 973, 599, 984], [604, 973, 646, 983], [653, 973, 702, 984]]}